256
Atoms. Timestep: 66000
1 0.702825 2.71217 2.71612
1 16.9592 2.64886 6.79019
1 0.681418 2.68359 10.8911
1 16.96 2.6822 14.9396
1 0.659922 6.77858 2.72442
1 16.9873 6.7709 6.77907
1 0.676686 6.76797 10.8581
1 16.9295 6.74348 14.9315
1 16.9627 10.8427 2.65772
1 0.71771 10.878 6.75758
1 0.690236 10.8621 10.8204
1 0.648992 10.8012 14.8745
1 0.657668 14.92 2.65842
1 16.9507 14.8969 6.76586
1 0.657261 14.9271 10.8304
1 0.663609 14.9018 14.8394
1 4.73851 2.73441 2.72159
1 4.71394 2.68516 6.78935
1 4.70594 2.69554 10.8948
1 4.72138 2.72485 14.9901
1 4.72712 6.801 2.70335
1 4.71405 6.75803 6.78573
1 4.68325 6.76425 10.8909
1 4.74326 6.80879 14.9346
1 4.69965 10.8793 2.69776
1 4.71896 10.8662 6.77954
1 4.74233 10.8842 10.8515
1 4.7183 10.8095 14.9298
1 4.74122 14.9214 2.67495
1 4.75706 14.9459 6.7488
1 4.73486 14.9442 10.8066
1 4.67797 14.8702 14.9209
1 8.78665 2.69831 2.69027
1 8.81252 2.70817 6.75079
1 8.8014 2.6679 10.8577
1 8.77306 2.67178 14.9454
1 8.79452 6.75018 2.70645
1 8.78689 6.77841 6.79028
1 8.77548 6.76569 10.8713
1 8.85698 6.78454 14.9058
1 8.81633 10.8635 2.67747
1 8.81715 10.8399 6.74888
1 8.83123 10.8315 10.8037
1 8.83139 10.8546 14.8942
1 8.79039 14.9248 2.65337
1 8.82239 14.9325 6.7404
1 8.80141 14.9285 10.8262
1 8.75884 14.9148 14.9044
1 12.8634 2.66736 2.66923
1 12.9218 2.70417 6.75426
1 12.8786 2.67887 10.8524
1 12.8545 2.63601 14.9439
1 12.8755 6.81037 2.70534
1 12.9107 6.7615 6.75358
1 12.8958 6.74229 10.8578
1 12.8671 6.75552 14.9269
1 12.895 10.8451 2.67453
1 12.8928 10.8427 6.78117
1 12.8805 10.8316 10.7983
1 12.9016 10.8576 14.8822
1 12.9044 14.9301 2.6438
1 12.8428 14.8968 6.74687
1 12.857 14.9227 10.8282
1 12.8727 14.9185 14.8891
1 2.70201 0.68147 2.69057
1 2.65009 16.9277 6.786
1 2.67221 0.660114 10.8531
1 2.68627 0.630635 14.9036
1 2.67166 4.74204 2.72338
1 2.66222 4.67649 6.78322
1 2.66685 4.69672 10.8844
1 2.67018 4.73917 14.9825
1 2.67192 8.81378 2.72846
1 2.69026 8.8189 6.77651
1 2.68327 8.81863 10.8767
1 2.65236 8.7629 14.9522
1 2.66332 12.8711 2.63253
1 2.72274 12.9146 6.75865
1 2.68147 12.8887 10.824
1 2.66269 12.7927 14.9204
1 6.7541 0.672691 2.67377
1 6.7948 0.67299 6.74672
1 6.77937 0.647714 10.8317
1 6.71734 0.654872 14.9197
1 6.7933 4.7442 2.71996
1 6.74228 4.69816 6.8113
1 6.74782 4.7155 10.8885
1 6.7549 4.7621 14.9608
1 6.74471 8.83472 2.70502
1 6.75925 8.82933 6.76386
1 6.75463 8.79882 10.8601
1 6.7952 8.81069 14.9385
1 6.75828 12.8963 2.6766
1 6.74891 12.8905 6.72566
1 6.79518 12.9018 10.836
1 6.76065 12.8638 14.9133
1 10.7968 0.657893 2.64988
1 10.8451 0.688744 6.74345
1 10.8147 0.667603 10.854
1 10.791 16.9122 14.9204
1 10.8447 4.72274 2.69099
1 10.8591 4.71862 6.77257
1 10.8589 4.69463 10.8812
1 10.8172 4.68343 14.9352
1 10.8546 8.83376 2.69718
1 10.8391 8.81623 6.77807
1 10.8274 8.80369 10.8143
1 10.8446 8.84596 14.9022
1 10.8413 12.8849 2.66484
1 10.8293 12.881 6.74008
1 10.8417 12.8742 10.8034
1 10.836 12.9014 14.8964
1 14.9349 16.9162 2.65223
1 14.8922 16.9183 6.74723
1 14.9365 0.663108 10.845
1 14.9442 16.9448 14.9099
1 14.9222 4.7222 2.70981
1 14.9453 4.68856 6.79704
1 14.9186 4.71058 10.8655
1 14.8866 4.7054 14.929
1 14.909 8.82079 2.68762
1 14.9485 8.82943 6.78826
1 14.9434 8.77901 10.8465
1 14.8912 8.77358 14.9276
1 14.9492 12.8701 2.63915
1 14.9139 12.8797 6.77392
1 14.8942 12.8752 10.8322
1 14.9205 12.8701 14.8425
1 2.6921 2.68872 0.705245
1 2.70144 2.65709 4.74252
1 2.67252 2.68185 8.83519
1 2.68649 2.68975 12.9227
1 2.70257 6.75635 0.682032
1 2.67061 6.75702 4.72121
1 2.69995 6.75277 8.81967
1 2.65999 6.76075 12.9236
1 2.65658 10.7891 0.664352
1 2.67453 10.8783 4.68681
1 2.70335 10.8551 8.8481
1 2.69293 10.8234 12.8722
1 2.68811 14.9191 16.9206
1 2.67737 14.9343 4.73509
1 2.70212 14.9323 8.79845
1 2.68001 14.9133 12.8513
1 6.7629 2.68775 16.9702
1 6.74894 2.70697 4.73535
1 6.73799 2.71803 8.82989
1 6.7496 2.69127 12.9076
1 6.80392 6.81138 0.666618
1 6.74022 6.77678 4.72251
1 6.71983 6.75634 8.83583
1 6.75781 6.77513 12.9266
1 6.76401 10.874 0.658613
1 6.76474 10.8715 4.70225
1 6.76565 10.8596 8.78892
1 6.7912 10.8273 12.8702
1 6.75569 14.9232 16.9398
1 6.77588 14.9534 4.69456
1 6.77657 14.9381 8.76771
1 6.75261 14.9062 12.8564
1 10.7899 2.65001 0.671968
1 10.828 2.71632 4.71153
1 10.8554 2.7075 8.84211
1 10.8119 2.64295 12.8953
1 10.8442 6.79099 16.9434
1 10.8799 6.79772 4.73102
1 10.8234 6.75565 8.85326
1 10.8445 6.75209 12.8643
1 10.8311 10.8566 16.9232
1 10.8418 10.8546 4.70358
1 10.8218 10.8171 8.79732
1 10.8086 10.8438 12.8543
1 10.813 14.9221 16.9347
1 10.8433 14.9351 4.67945
1 10.8097 14.9278 8.81245
1 10.7959 14.9291 12.8577
1 14.9218 2.6612 16.9686
1 14.9383 2.66594 4.72763
1 14.9432 2.66056 8.82377
1 14.9338 2.67069 12.8961
1 14.8925 6.76302 0.679336
1 14.9531 6.77387 4.71921
1 14.9666 6.775 8.83297
1 14.9263 6.73541 12.8731
1 14.9786 10.8098 16.9057
1 14.9445 10.909 4.70619
1 14.9477 10.8253 8.81287
1 14.9379 10.8069 12.8413
1 14.9731 14.8959 16.8864
1 14.9196 14.9043 4.67829
1 14.9229 14.9106 8.81881
1 14.9375 14.9178 12.8268
1 0.701442 16.9719 16.9428
1 0.657132 16.9469 4.71543
1 0.664462 16.947 8.80017
1 0.663591 0.660339 12.8798
1 16.9442 4.70139 0.709586
1 0.678589 4.70012 4.76162
1 0.682943 4.72136 8.80109
1 16.9279 4.7149 12.9045
1 16.9484 8.76512 0.680204
1 16.9564 8.84301 4.72556
1 0.697452 8.83108 8.81157
1 0.665629 8.78392 12.8927
1 0.641519 12.8685 16.8942
1 0.674586 12.897 4.69066
1 0.667908 12.8922 8.79565
1 0.644688 12.8452 12.8442
1 4.71225 0.682306 16.9697
1 4.71972 0.67306 4.73834
1 4.72857 0.656581 8.80661
1 4.72009 16.957 12.8542
1 4.74029 4.74918 0.694246
1 4.68908 4.73069 4.72899
1 4.69207 4.73362 8.84361
1 4.72052 4.75455 12.9285
1 4.72397 8.82345 0.690537
1 4.69258 8.82282 4.75103
1 4.73851 8.81702 8.83798
1 4.74161 8.79485 12.8855
1 4.7018 12.8539 16.9353
1 4.74985 12.9209 4.69275
1 4.76418 12.8997 8.79728
1 4.71111 12.8431 12.8714
1 8.76897 16.9594 16.9516
1 8.79994 0.680492 4.68783
1 8.82843 0.687987 8.80077
1 8.76936 0.672622 12.8869
1 8.82561 4.70256 0.679214
1 8.82247 4.72531 4.74598
1 8.80302 4.71597 8.83502
1 8.80542 4.73519 12.8615
1 8.84366 8.83919 0.668711
1 8.81757 8.81311 4.72205
1 8.78751 8.77768 8.79078
1 8.82507 8.80351 12.8897
1 8.81971 12.8767 16.9453
1 8.81517 12.884 4.70781
1 8.8068 12.8608 8.78623
1 8.81281 12.8586 12.8353
1 12.8911 16.9434 16.9372
1 12.8841 0.673243 4.7125
1 12.8629 0.673552 8.79793
1 12.8799 0.64082 12.8573
1 12.8623 4.71383 0.649285
1 12.8854 4.70856 4.73514
1 12.9114 4.74127 8.83172
1 12.8911 4.70591 12.888
1 12.8792 8.81633 0.678066
1 12.9143 8.8486 4.72943
1 12.9128 8.7759 8.82675
1 12.8714 8.77401 12.8342
1 12.9138 12.8662 16.912
1 12.9054 12.8995 4.72528
1 12.8713 12.8471 8.79382
1 12.8743 12.859 12.8524
256
Atoms. Timestep: 67000
1 0.653698 2.69325 2.67924
1 16.9176 2.66762 6.74477
1 0.646183 2.68407 10.8214
1 16.9739 2.72686 14.9188
1 0.661262 6.79082 2.64989
1 16.9658 6.80706 6.73336
1 0.667507 6.76491 10.8566
1 16.9659 6.7894 14.9232
1 16.9464 10.8209 2.65901
1 0.635974 10.8712 6.73737
1 0.66728 10.856 10.8239
1 0.658044 10.8424 14.8973
1 0.68268 14.895 2.67685
1 16.9499 14.9128 6.79235
1 0.652073 14.9191 10.8447
1 0.721489 14.9485 14.9178
1 4.73434 2.672 2.69986
1 4.72019 2.64058 6.7928
1 4.69021 2.65591 10.8296
1 4.73025 2.70406 14.8833
1 4.7341 6.77404 2.66073
1 4.69697 6.76038 6.77193
1 4.7328 6.80595 10.8505
1 4.74357 6.77026 14.9143
1 4.69882 10.7997 2.66637
1 4.74067 10.8686 6.74543
1 4.74634 10.8333 10.8255
1 4.71325 10.8512 14.9098
1 4.68669 14.9079 2.69472
1 4.74169 14.9078 6.78588
1 4.73197 14.9005 10.83
1 4.72304 14.9228 14.892
1 8.81818 2.66408 2.67195
1 8.7992 2.67817 6.77452
1 8.80741 2.69585 10.8522
1 8.79654 2.69261 14.9089
1 8.84104 6.76816 2.68452
1 8.81416 6.76505 6.79419
1 8.81986 6.75382 10.8455
1 8.8386 6.78031 14.9151
1 8.81238 10.8192 2.71282
1 8.79672 10.8219 6.78389
1 8.81003 10.8571 10.8423
1 8.81464 10.8688 14.9247
1 8.79339 14.8994 2.74343
1 8.83853 14.9084 6.79132
1 8.81244 14.8852 10.8416
1 8.81027 14.9162 14.9602
1 12.8497 2.68786 2.67359
1 12.8594 2.70991 6.74179
1 12.8883 2.68174 10.8582
1 12.8716 2.71644 14.8884
1 12.8753 6.76359 2.68049
1 12.8901 6.78119 6.7617
1 12.9141 6.76947 10.8114
1 12.8598 6.75114 14.9025
1 12.8812 10.8428 2.71007
1 12.8811 10.8087 6.76479
1 12.8697 10.8598 10.8657
1 12.9049 10.8602 14.8955
1 12.889 14.9 2.68786
1 12.8664 14.9017 6.77494
1 12.8877 14.9241 10.8537
1 12.9156 14.9309 14.9063
1 2.65214 0.6476 2.6701
1 2.66377 16.9028 6.78703
1 2.64016 0.632947 10.8504
1 2.68665 0.688815 14.9129
1 2.67584 4.70732 2.67864
1 2.6458 4.68834 6.77504
1 2.66127 4.71292 10.8356
1 2.7004 4.76478 14.9131
1 2.65163 8.79868 2.66001
1 2.68358 8.85145 6.75947
1 2.7091 8.83674 10.8649
1 2.67042 8.80081 14.9427
1 2.64752 12.8499 2.67096
1 2.65833 12.8817 6.75913
1 2.6675 12.9052 10.8772
1 2.66964 12.8998 14.8838
1 6.76638 0.652304 2.67121
1 6.77747 0.663597 6.7711
1 6.77375 0.645796 10.8401
1 6.77598 0.647982 14.9136
1 6.77668 4.74061 2.67411
1 6.7795 4.73975 6.76884
1 6.79323 4.7069 10.8552
1 6.79435 4.71537 14.9048
1 6.76744 8.78956 2.6828
1 6.74345 8.82483 6.76793
1 6.77303 8.82095 10.8397
1 6.8027 8.84913 14.9234
1 6.7363 12.8477 2.69433
1 6.79522 12.8933 6.78498
1 6.76946 12.8794 10.8125
1 6.74865 12.8947 14.9308
1 10.8369 0.669303 2.68765
1 10.8353 0.661886 6.77819
1 10.8654 0.659456 10.8385
1 10.8497 16.9435 14.9069
1 10.8254 4.6871 2.65531
1 10.8179 4.74117 6.76013
1 10.8471 4.70917 10.8306
1 10.8133 4.71401 14.8976
1 10.8372 8.80064 2.69726
1 10.8185 8.7924 6.76348
1 10.8527 8.81844 10.8241
1 10.8504 8.81241 14.8982
1 10.8418 12.8781 2.68175
1 10.8144 12.8402 6.77968
1 10.821 12.8865 10.8646
1 10.8595 12.9262 14.9216
1 14.9062 16.9536 2.67408
1 14.9023 16.9462 6.78686
1 14.9157 0.649524 10.847
1 14.9527 16.9806 14.9079
1 14.8851 4.70123 2.70673
1 14.914 4.7181 6.73808
1 14.9473 4.71431 10.8252
1 14.9136 4.7262 14.9321
1 14.893 8.79572 2.71103
1 14.9263 8.85012 6.76823
1 14.8973 8.83434 10.8533
1 14.8947 8.8274 14.9271
1 14.918 12.8609 2.70144
1 14.8944 12.8592 6.81847
1 14.918 12.8803 10.8595
1 14.9232 12.8826 14.9432
1 2.69148 2.71171 0.671188
1 2.671 2.66585 4.71047
1 2.65984 2.66033 8.81589
1 2.67213 2.70818 12.8758
1 2.67138 6.76303 0.660389
1 2.67242 6.75829 4.71427
1 2.67567 6.7751 8.82347
1 2.70579 6.78057 12.8716
1 2.67225 10.8329 0.61397
1 2.68828 10.8606 4.70846
1 2.68731 10.882 8.80757
1 2.67881 10.8012 12.9024
1 2.67937 14.9016 16.9478
1 2.65512 14.9185 4.71092
1 2.66801 14.898 8.82809
1 2.70311 14.9051 12.8642
1 6.76626 2.68645 16.9377
1 6.76873 2.68983 4.71429
1 6.74301 2.68838 8.81868
1 6.75474 2.65567 12.8883
1 6.78797 6.76412 0.661976
1 6.76462 6.75311 4.75273
1 6.74399 6.77007 8.83657
1 6.79786 6.78163 12.8619
1 6.78216 10.8291 0.641121
1 6.77209 10.8383 4.73139
1 6.77909 10.8144 8.8252
1 6.77751 10.8674 12.8831
1 6.74706 14.9164 16.9959
1 6.78713 14.934 4.71936
1 6.80643 14.9429 8.80337
1 6.75776 14.9029 12.8746
1 10.8094 2.65726 0.634972
1 10.8273 2.68105 4.67592
1 10.8322 2.69616 8.80337
1 10.8228 2.66402 12.8808
1 10.842 6.7537 16.9408
1 10.8097 6.79261 4.74605
1 10.857 6.77104 8.81212
1 10.848 6.76263 12.8729
1 10.8741 10.87 16.9765
1 10.8522 10.8389 4.69475
1 10.7993 10.794 8.79308
1 10.8512 10.8159 12.8442
1 10.8191 14.9281 16.9565
1 10.8217 14.9139 4.70209
1 10.8153 14.9109 8.80303
1 10.8163 14.9071 12.8873
1 14.9198 2.6819 16.943
1 14.913 2.67369 4.68759
1 14.9079 2.69698 8.80804
1 14.9306 2.67221 12.894
1 14.9304 6.73134 0.677088
1 14.9223 6.78608 4.73535
1 14.9712 6.79569 8.80957
1 14.9248 6.74519 12.8923
1 14.9185 10.839 16.9714
1 14.9573 10.8164 4.6993
1 14.9263 10.8362 8.83844
1 14.9344 10.8199 12.8845
1 14.9677 14.9321 16.9797
1 14.9294 14.9253 4.71771
1 14.8964 14.9217 8.86008
1 14.94 14.9134 12.8744
1 0.703295 16.978 16.9429
1 0.64859 16.9702 4.70751
1 0.625331 16.9823 8.81916
1 0.683994 0.670257 12.8567
1 16.9484 4.7234 0.674261
1 0.62426 4.73301 4.68395
1 0.65489 4.73116 8.80196
1 16.9787 4.73451 12.8653
1 16.9021 8.83036 0.652181
1 16.9652 8.81561 4.7376
1 0.70333 8.821 8.79977
1 0.633731 8.81032 12.8809
1 0.659808 12.864 16.9446
1 0.648878 12.888 4.7104
1 0.65352 12.8943 8.82926
1 0.663288 12.8873 12.8653
1 4.72449 0.659882 16.9304
1 4.71442 0.660194 4.72665
1 4.71925 0.654288 8.81884
1 4.71696 16.9361 12.8718
1 4.753 4.7355 0.685507
1 4.74793 4.69043 4.75592
1 4.69809 4.72725 8.80381
1 4.75425 4.74841 12.8715
1 4.74421 8.80614 0.679829
1 4.71241 8.80412 4.70316
1 4.70637 8.83268 8.79508
1 4.72259 8.83626 12.8894
1 4.69591 12.8725 16.9559
1 4.71251 12.8792 4.74208
1 4.72422 12.8871 8.80088
1 4.70562 12.8522 12.8614
1 8.81045 16.9415 16.9581
1 8.84801 0.682434 4.74103
1 8.82324 0.698965 8.80954
1 8.848 0.645898 12.8642
1 8.8211 4.7277 0.656092
1 8.83165 4.72784 4.73235
1 8.82165 4.7484 8.82138
1 8.84136 4.70772 12.873
1 8.82344 8.81543 0.681904
1 8.79967 8.78247 4.74733
1 8.77288 8.75791 8.82495
1 8.80624 8.80265 12.8743
1 8.80078 12.8751 17.0177
1 8.82474 12.8754 4.74774
1 8.80386 12.8594 8.82908
1 8.78398 12.8804 12.9233
1 12.8911 16.9581 16.9464
1 12.8792 0.670289 4.70558
1 12.8829 0.686527 8.80518
1 12.9098 0.673776 12.8742
1 12.8651 4.68743 0.677277
1 12.8797 4.76295 4.70092
1 12.8993 4.75497 8.77208
1 12.8798 4.70144 12.8564
1 12.8911 8.84217 0.6757
1 12.9072 8.82497 4.74553
1 12.9159 8.80385 8.7932
1 12.8821 8.81607 12.8801
1 12.9132 12.8929 16.9813
1 12.8822 12.8607 4.73776
1 12.8568 12.8526 8.81144
1 12.9234 12.8784 12.9066
256
Atoms. Timestep: 68000
1 0.686799 2.68028 2.66719
1 16.9239 2.66207 6.74827
1 0.639282 2.7064 10.7803
1 16.984 2.75572 14.8641
1 0.630796 6.75993 2.6676
1 16.9397 6.77789 6.71541
1 0.660663 6.79548 10.7872
1 16.9411 6.78407 14.8965
1 16.953 10.8401 2.68027
1 0.642484 10.8224 6.75891
1 0.641028 10.8446 10.8477
1 0.671927 10.8288 14.9201
1 0.661224 14.9216 2.71779
1 16.8934 14.9086 6.7581
1 0.623849 14.913 10.8453
1 0.67795 14.9497 14.908
1 4.72458 2.65965 2.7006
1 4.6799 2.63707 6.79185
1 4.70813 2.70297 10.7842
1 4.74668 2.70105 14.8964
1 4.70566 6.74134 2.64827
1 4.7006 6.74967 6.74773
1 4.72316 6.76829 10.8026
1 4.7541 6.77387 14.873
1 4.71329 10.8251 2.67929
1 4.73555 10.8071 6.73852
1 4.7742 10.8599 10.8413
1 4.75265 10.8184 14.9268
1 4.72794 14.9183 2.72402
1 4.72802 14.9034 6.77797
1 4.73173 14.9199 10.8219
1 4.68894 14.8853 14.9252
1 8.81068 2.66286 2.66469
1 8.83833 2.69449 6.77148
1 8.84798 2.69632 10.825
1 8.82601 2.65771 14.8842
1 8.78695 6.74951 2.65629
1 8.75852 6.73584 6.76495
1 8.80115 6.81016 10.8548
1 8.81803 6.75281 14.8717
1 8.84637 10.845 2.74721
1 8.79635 10.7927 6.79404
1 8.86091 10.8541 10.8742
1 8.85698 10.8644 14.9572
1 8.81184 14.9042 2.74549
1 8.79843 14.8808 6.75976
1 8.86393 14.8978 10.8641
1 8.83068 14.8909 14.9391
1 12.878 2.71565 2.6704
1 12.8709 2.69284 6.76893
1 12.9281 2.74566 10.827
1 12.9017 2.67799 14.9262
1 12.858 6.77372 2.65854
1 12.8863 6.79722 6.74424
1 12.8742 6.81902 10.8248
1 12.8421 6.78442 14.8646
1 12.9078 10.8644 2.73309
1 12.8499 10.8154 6.81446
1 12.8731 10.8511 10.8903
1 12.8502 10.8901 14.9916
1 12.8743 14.8994 2.73043
1 12.839 14.8952 6.76048
1 12.8541 14.9249 10.8818
1 12.889 14.9325 14.9615
1 2.6637 0.658463 2.7166
1 2.59518 16.9256 6.76373
1 2.66162 0.665353 10.8156
1 2.69363 0.714771 14.9006
1 2.67189 4.73962 2.67655
1 2.65179 4.7034 6.73924
1 2.66034 4.72685 10.8033
1 2.71346 4.71753 14.9009
1 2.62974 8.80567 2.67936
1 2.67541 8.81684 6.75533
1 2.64891 8.87298 10.8499
1 2.66337 8.82601 14.929
1 2.65645 12.8823 2.71387
1 2.64705 12.8645 6.80773
1 2.68794 12.9041 10.8429
1 2.6547 12.8682 14.9744
1 6.8012 0.633582 2.70616
1 6.80555 0.626607 6.79634
1 6.7839 0.636971 10.8243
1 6.79255 0.647872 14.9002
1 6.80261 4.69391 2.63717
1 6.73166 4.69571 6.75962
1 6.77027 4.74228 10.8244
1 6.83547 4.72641 14.8486
1 6.78433 8.80116 2.64381
1 6.77921 8.79166 6.7576
1 6.78454 8.83821 10.8128
1 6.76275 8.81102 14.8704
1 6.76504 12.8827 2.69346
1 6.75823 12.8411 6.72767
1 6.8062 12.8954 10.8617
1 6.76215 12.855 14.9239
1 10.8634 0.645783 2.68844
1 10.8399 0.630239 6.75386
1 10.8927 0.663672 10.876
1 10.8887 16.9008 14.9632
1 10.7913 4.74003 2.66755
1 10.8564 4.73418 6.75466
1 10.8549 4.76531 10.7804
1 10.8689 4.67364 14.8668
1 10.8107 8.83357 2.69848
1 10.8063 8.79107 6.79446
1 10.8264 8.8565 10.8647
1 10.8387 8.85582 14.9421
1 10.8604 12.8715 2.73156
1 10.8347 12.8556 6.80847
1 10.8689 12.8761 10.8812
1 10.8741 12.891 14.9709
1 14.914 16.9663 2.71038
1 14.8635 16.9177 6.76541
1 14.8807 0.667978 10.8408
1 14.9487 16.9987 14.9143
1 14.9086 4.71711 2.67324
1 14.932 4.71528 6.74799
1 14.9427 4.75708 10.783
1 14.9074 4.72272 14.9057
1 14.8918 8.816 2.677
1 14.9223 8.82438 6.75496
1 14.9016 8.84409 10.8343
1 14.8879 8.81473 14.9252
1 14.9209 12.8739 2.72459
1 14.8679 12.8621 6.79211
1 14.8952 12.8781 10.9222
1 14.9037 12.8957 14.9638
1 2.7163 2.70907 0.64658
1 2.62693 2.67188 4.74371
1 2.59793 2.64802 8.80693
1 2.68879 2.71831 12.8305
1 2.6952 6.75827 0.629955
1 2.68367 6.74373 4.72033
1 2.66944 6.77327 8.79703
1 2.64649 6.78804 12.8742
1 2.6657 10.792 0.681962
1 2.68316 10.8194 4.70733
1 2.69997 10.8327 8.87649
1 2.68481 10.8684 12.8808
1 2.71083 14.915 17.0065
1 2.70173 14.9402 4.72932
1 2.64604 14.9615 8.82924
1 2.65869 14.9307 12.8827
1 6.7865 2.67487 16.9412
1 6.78898 2.67634 4.73097
1 6.81243 2.64822 8.80903
1 6.77939 2.68898 12.8278
1 6.80391 6.75621 0.574166
1 6.75301 6.73248 4.68668
1 6.75558 6.75486 8.81259
1 6.7666 6.79658 12.822
1 6.77926 10.8419 0.647575
1 6.79644 10.7999 4.68687
1 6.77893 10.8177 8.80809
1 6.79156 10.8405 12.8869
1 6.74265 14.8879 16.9451
1 6.77862 14.9095 4.69236
1 6.79546 14.9039 8.82166
1 6.77586 14.8923 12.884
1 10.8291 2.6348 0.63612
1 10.8287 2.70095 4.71921
1 10.8436 2.71856 8.84458
1 10.8714 2.65863 12.8605
1 10.8268 6.74121 16.9011
1 10.8114 6.77297 4.69632
1 10.8254 6.7909 8.81864
1 10.8312 6.75477 12.8638
1 10.8525 10.8774 17.0106
1 10.8459 10.8093 4.78497
1 10.836 10.7931 8.87957
1 10.8568 10.8607 12.9293
1 10.8807 14.8949 16.9864
1 10.8249 14.9102 4.72198
1 10.8687 14.906 8.82075
1 10.8466 14.9064 12.9161
1 14.948 2.68656 16.9461
1 14.9116 2.67888 4.71345
1 14.922 2.69618 8.80359
1 14.9483 2.71825 12.8452
1 14.885 6.76824 0.64376
1 14.9565 6.77709 4.66744
1 14.9512 6.77873 8.78822
1 14.9369 6.78192 12.8329
1 14.9297 10.8495 16.9746
1 14.9149 10.8317 4.74171
1 14.9353 10.8331 8.84276
1 14.9162 10.8392 12.929
1 14.9471 14.9431 16.9847
1 14.898 14.8881 4.73199
1 14.8839 14.8961 8.82138
1 14.9229 14.9393 12.9238
1 0.683733 16.9779 16.9549
1 0.614825 16.9729 4.74733
1 0.607422 16.9556 8.79139
1 0.660574 0.706081 12.8317
1 16.9522 4.7395 0.65631
1 0.664311 4.74993 4.713
1 0.657695 4.74326 8.74617
1 16.9489 4.74447 12.8312
1 16.916 8.79627 0.686059
1 16.9496 8.82364 4.69127
1 0.655291 8.83132 8.7761
1 0.622685 8.84888 12.8431
1 0.651243 12.8741 16.9595
1 0.640072 12.8744 4.7391
1 0.622497 12.8585 8.84464
1 0.631412 12.8636 12.8961
1 4.73053 0.659998 16.9979
1 4.72902 0.658045 4.74041
1 4.70926 0.655703 8.8152
1 4.72524 16.976 12.8344
1 4.75987 4.71259 0.615153
1 4.71447 4.71572 4.71397
1 4.71839 4.69666 8.80198
1 4.74905 4.76439 12.8575
1 4.72877 8.79259 0.621782
1 4.73854 8.76751 4.70844
1 4.71948 8.79996 8.81437
1 4.71678 8.83986 12.8568
1 4.71143 12.8398 16.9739
1 4.72332 12.8489 4.72697
1 4.73023 12.8831 8.80552
1 4.72416 12.8881 12.8734
1 8.83803 16.9125 16.9845
1 8.83351 0.656209 4.76221
1 8.88401 0.647523 8.83777
1 8.8379 0.640452 12.8801
1 8.84054 4.7015 0.604766
1 8.77965 4.74436 4.71257
1 8.82484 4.73496 8.79554
1 8.85736 4.72823 12.8301
1 8.83196 8.86072 0.651322
1 8.77949 8.78555 4.74221
1 8.7839 8.81793 8.82806
1 8.81162 8.84808 12.9074
1 8.84941 12.8719 17.0147
1 8.82907 12.8388 4.75389
1 8.80881 12.8553 8.80352
1 8.84802 12.8641 12.936
1 12.9332 16.9399 16.9899
1 12.8374 0.676935 4.72387
1 12.8871 0.685902 8.83924
1 12.9058 0.686958 12.8879
1 12.8471 4.73357 0.617814
1 12.8855 4.76954 4.69577
1 12.9163 4.75941 8.7785
1 12.9136 4.71846 12.8197
1 12.8402 8.83797 0.659287
1 12.8759 8.81828 4.74597
1 12.8791 8.81242 8.84014
1 12.8748 8.82494 12.8939
1 12.9133 12.8988 17.0278
1 12.8639 12.8492 4.77999
1 12.8646 12.8823 8.8913
1 12.8566 12.8944 12.9173
256
Atoms. Timestep: 69000
1 0.634059 2.70216 2.70583
1 16.9192 2.66862 6.78114
1 0.622394 2.67487 10.8216
1 16.947 2.69534 14.9317
1 0.625094 6.78474 2.71661
1 16.9548 6.77885 6.7931
1 0.663004 6.77366 10.8072
1 16.926 6.75068 14.9369
1 16.9285 10.8439 2.69126
1 0.695359 10.852 6.75769
1 0.648121 10.8031 10.8116
1 0.581466 10.8221 14.8945
1 0.654941 14.903 2.67976
1 16.9521 14.872 6.76715
1 0.626207 14.9098 10.8261
1 0.651655 14.8902 14.8977
1 4.73872 2.70558 2.72483
1 4.70801 2.68197 6.78315
1 4.69728 2.69972 10.876
1 4.72059 2.6757 14.9323
1 4.72377 6.78135 2.70635
1 4.72225 6.75451 6.77721
1 4.71404 6.77951 10.848
1 4.73488 6.81145 14.9198
1 4.69697 10.852 2.69155
1 4.72907 10.8551 6.76577
1 4.72988 10.8302 10.854
1 4.70447 10.8317 14.8781
1 4.72828 14.8939 2.67618
1 4.75341 14.9009 6.73045
1 4.74057 14.9025 10.8145
1 4.72229 14.8827 14.8812
1 8.81691 2.68467 2.67694
1 8.80599 2.74072 6.73036
1 8.82227 2.69159 10.8506
1 8.82781 2.67127 14.9232
1 8.82787 6.75245 2.70841
1 8.85909 6.81074 6.79386
1 8.80883 6.80274 10.8674
1 8.84612 6.78948 14.925
1 8.79777 10.8549 2.6962
1 8.82422 10.8555 6.76604
1 8.80399 10.8289 10.8233
1 8.8135 10.8615 14.879
1 8.85828 14.9015 2.68788
1 8.85756 14.9459 6.72831
1 8.83061 14.9228 10.8096
1 8.8058 14.9155 14.9352
1 12.8454 2.65911 2.65591
1 12.8685 2.7374 6.72913
1 12.8476 2.70004 10.8246
1 12.825 2.66075 14.8936
1 12.8626 6.81026 2.70644
1 12.891 6.80455 6.78545
1 12.8651 6.78748 10.8383
1 12.868 6.78724 14.9363
1 12.8737 10.8591 2.72204
1 12.8848 10.8325 6.80393
1 12.8469 10.8173 10.8373
1 12.8796 10.844 14.8892
1 12.8721 14.9278 2.6511
1 12.8494 14.8988 6.78896
1 12.8507 14.9054 10.8239
1 12.9084 14.9116 14.9079
1 2.68346 0.676835 2.70219
1 2.68762 16.9162 6.79964
1 2.69018 0.633614 10.859
1 2.71111 0.658796 14.9251
1 2.67855 4.7174 2.71306
1 2.64892 4.69934 6.78552
1 2.69498 4.73003 10.863
1 2.62925 4.75583 14.9388
1 2.66538 8.83683 2.68424
1 2.67842 8.82365 6.77079
1 2.6671 8.81552 10.8448
1 2.61845 8.79786 14.9129
1 2.64965 12.8769 2.67284
1 2.67303 12.9079 6.74645
1 2.66918 12.8436 10.8084
1 2.61981 12.8291 14.8847
1 6.78209 0.669777 2.69165
1 6.79356 0.687788 6.74979
1 6.80363 0.657503 10.8366
1 6.79312 0.672589 14.9361
1 6.82083 4.70452 2.68599
1 6.78129 4.74253 6.82838
1 6.78044 4.71025 10.8892
1 6.79306 4.74247 14.9466
1 6.77761 8.82276 2.68167
1 6.77854 8.82783 6.75366
1 6.79431 8.83528 10.8434
1 6.80123 8.8244 14.8914
1 6.80158 12.8827 2.67036
1 6.82475 12.9142 6.76238
1 6.80509 12.8491 10.8122
1 6.80722 12.8629 14.9151
1 10.8603 0.641597 2.6744
1 10.8729 0.702983 6.7661
1 10.8332 0.649889 10.8277
1 10.8518 16.961 14.9074
1 10.875 4.68598 2.68044
1 10.861 4.74873 6.76928
1 10.8803 4.71992 10.845
1 10.8337 4.69414 14.907
1 10.8495 8.80236 2.69606
1 10.8607 8.81144 6.76691
1 10.8008 8.78012 10.787
1 10.8413 8.81494 14.8779
1 10.8679 12.8933 2.66765
1 10.8285 12.8626 6.74881
1 10.8087 12.8415 10.823
1 10.8443 12.8453 14.8953
1 14.9201 16.9338 2.6794
1 14.8634 16.9381 6.7625
1 14.916 0.653258 10.8292
1 14.9261 16.9624 14.9355
1 14.8898 4.71569 2.69053
1 14.9008 4.75896 6.75932
1 14.8948 4.70994 10.8437
1 14.8902 4.74801 14.9438
1 14.9207 8.84216 2.7132
1 14.9364 8.82286 6.80109
1 14.9326 8.80041 10.8452
1 14.8598 8.83677 14.9292
1 14.9299 12.8756 2.69256
1 14.903 12.8697 6.80884
1 14.8554 12.8519 10.8324
1 14.9113 12.8686 14.897
1 2.6694 2.71457 0.681426
1 2.71367 2.65919 4.74454
1 2.66264 2.64253 8.8184
1 2.66281 2.68585 12.8559
1 2.66054 6.79286 0.677456
1 2.66524 6.76933 4.69101
1 2.67958 6.76176 8.81915
1 2.65889 6.79246 12.8669
1 2.65738 10.8254 0.644417
1 2.71588 10.8224 4.69701
1 2.70097 10.863 8.80099
1 2.67473 10.8464 12.8788
1 2.7025 14.9191 16.9391
1 2.69851 14.8974 4.74023
1 2.69139 14.9047 8.82544
1 2.67394 14.9389 12.8634
1 6.77935 2.68546 16.9595
1 6.79302 2.70403 4.7319
1 6.7902 2.70062 8.83723
1 6.79407 2.67173 12.8533
1 6.82001 6.80684 0.702234
1 6.82318 6.77758 4.71257
1 6.81263 6.76848 8.82913
1 6.79361 6.77116 12.908
1 6.76343 10.8363 0.670337
1 6.80422 10.8067 4.69258
1 6.79089 10.8582 8.81392
1 6.75273 10.8441 12.8317
1 6.80347 14.9119 16.9404
1 6.80029 14.9257 4.722
1 6.82723 14.9299 8.81639
1 6.75734 14.9089 12.8658
1 10.8174 2.68253 0.625415
1 10.8327 2.70575 4.71093
1 10.8685 2.6829 8.7995
1 10.8573 2.66431 12.8551
1 10.8268 6.7654 16.9863
1 10.8549 6.78787 4.71027
1 10.825 6.75665 8.82317
1 10.8251 6.7341 12.8519
1 10.8579 10.8118 16.9326
1 10.8582 10.8101 4.70214
1 10.839 10.8228 8.76238
1 10.8234 10.8487 12.8644
1 10.8324 14.909 16.9771
1 10.8525 14.8946 4.68582
1 10.8358 14.9019 8.79695
1 10.8575 14.9078 12.8636
1 14.9182 2.67859 16.9806
1 14.933 2.70537 4.72201
1 14.9371 2.6509 8.80923
1 14.9356 2.67242 12.8669
1 14.8927 6.79505 0.668982
1 14.9356 6.80939 4.76092
1 14.9561 6.76888 8.84348
1 14.8832 6.7482 12.912
1 14.9279 10.8158 16.9658
1 14.9416 10.8373 4.76146
1 14.9105 10.8272 8.8334
1 14.8905 10.831 12.8826
1 14.951 14.8943 16.9403
1 14.947 14.8834 4.73746
1 14.9046 14.9181 8.84794
1 14.9287 14.9312 12.8848
1 0.652535 16.9782 16.9796
1 0.627898 16.9357 4.75455
1 0.615873 16.9342 8.82536
1 0.647342 0.659301 12.8576
1 16.9113 4.75748 0.712112
1 0.643959 4.7246 4.75533
1 0.629241 4.71223 8.79558
1 16.9108 4.73483 12.8748
1 16.8988 8.78165 0.680098
1 16.9664 8.80366 4.72881
1 0.671162 8.8289 8.79263
1 0.611077 8.7703 12.8563
1 0.619664 12.8546 16.9366
1 0.656778 12.8404 4.72876
1 0.638642 12.8496 8.82522
1 0.624199 12.8471 12.8219
1 4.74299 0.692601 16.993
1 4.74638 0.679045 4.75723
1 4.74743 0.663556 8.7869
1 4.73485 16.9828 12.8941
1 4.7311 4.76837 0.705906
1 4.7415 4.72145 4.71377
1 4.72741 4.71611 8.83023
1 4.69767 4.70897 12.9228
1 4.7069 8.79538 0.658023
1 4.72424 8.78959 4.71555
1 4.71726 8.82811 8.77184
1 4.69535 8.81358 12.8786
1 4.68228 12.8591 16.9405
1 4.75777 12.8709 4.72107
1 4.74569 12.8659 8.78341
1 4.65962 12.8417 12.8424
1 8.81575 16.9629 16.9813
1 8.80701 0.685064 4.73438
1 8.83978 0.708702 8.78325
1 8.82436 0.676704 12.8803
1 8.80863 4.74872 0.651805
1 8.82873 4.75368 4.75788
1 8.81033 4.72487 8.83987
1 8.84355 4.73917 12.8754
1 8.83689 8.81662 0.66466
1 8.85088 8.80413 4.71052
1 8.84046 8.81832 8.79732
1 8.83702 8.82365 12.8357
1 8.82798 12.8676 16.9812
1 8.84337 12.8635 4.74287
1 8.84372 12.8662 8.79566
1 8.79668 12.8876 12.8274
1 12.8851 16.9666 16.9624
1 12.8829 0.688003 4.74942
1 12.8532 0.684662 8.81031
1 12.8949 0.656305 12.8456
1 12.8786 4.75293 0.655056
1 12.8573 4.74615 4.72831
1 12.9169 4.75043 8.80535
1 12.8786 4.72146 12.8932
1 12.8463 8.80848 0.70211
1 12.8897 8.83326 4.73691
1 12.9088 8.81412 8.79041
1 12.8316 8.8035 12.8495
1 12.8768 12.8775 16.9766
1 12.894 12.8869 4.73868
1 12.8248 12.8307 8.84078
1 12.8761 12.8628 12.8549
256
Atoms. Timestep: 70000
1 0.62283 2.68991 2.72228
1 16.9414 2.71841 6.80145
1 0.661701 2.66461 10.8507
1 16.9245 2.68687 14.9071
1 0.626227 6.81043 2.77301
1 16.965 6.77959 6.75323
1 0.637839 6.71234 10.8905
1 16.8421 6.80012 14.951
1 16.9376 10.8459 2.6741
1 0.672438 10.8806 6.77347
1 0.665083 10.7851 10.8302
1 0.639344 10.81 14.8918
1 0.641512 14.897 2.67533
1 16.9253 14.8997 6.81887
1 0.640903 14.8606 10.8395
1 0.632635 14.9005 14.8838
1 4.76476 2.73547 2.75498
1 4.70844 2.71741 6.78809
1 4.73014 2.6953 10.8511
1 4.74552 2.72926 14.9331
1 4.72054 6.80052 2.75374
1 4.71304 6.80175 6.79046
1 4.71007 6.77806 10.881
1 4.72791 6.80141 14.937
1 4.74396 10.8411 2.6693
1 4.75748 10.8717 6.72375
1 4.76567 10.8271 10.7802
1 4.67614 10.8009 14.92
1 4.70824 14.902 2.68547
1 4.73673 14.9576 6.75244
1 4.71516 14.8926 10.7994
1 4.71282 14.8872 14.8878
1 8.8479 2.70368 2.68646
1 8.88863 2.7613 6.76714
1 8.80569 2.76978 10.821
1 8.80486 2.70727 14.9229
1 8.87306 6.80715 2.74388
1 8.82065 6.81272 6.79522
1 8.85077 6.80732 10.839
1 8.79758 6.80585 14.9164
1 8.85462 10.8329 2.67639
1 8.83823 10.8582 6.74886
1 8.79974 10.8016 10.802
1 8.80202 10.8107 14.8919
1 8.79733 14.968 2.6662
1 8.84681 14.9528 6.76973
1 8.81253 14.9322 10.7795
1 8.78971 14.8894 14.8483
1 12.8662 2.68608 2.70278
1 12.855 2.70427 6.78682
1 12.8774 2.69151 10.8013
1 12.8727 2.66242 14.9126
1 12.8386 6.7774 2.77092
1 12.8794 6.80918 6.77061
1 12.8432 6.75255 10.7795
1 12.8043 6.7339 14.9346
1 12.8932 10.8644 2.69151
1 12.8486 10.8186 6.77477
1 12.8303 10.8313 10.8163
1 12.8242 10.8088 14.9171
1 12.8676 14.8865 2.64904
1 12.8566 14.9208 6.70925
1 12.82 14.8987 10.7892
1 12.8656 14.9073 14.8454
1 2.6698 0.628927 2.70528
1 2.68357 16.9712 6.80993
1 2.64425 0.642802 10.8264
1 2.64878 0.670773 14.9302
1 2.66232 4.76163 2.74008
1 2.65692 4.69762 6.81468
1 2.65999 4.71115 10.8794
1 2.7121 4.76135 14.9607
1 2.62983 8.87148 2.70075
1 2.7313 8.86357 6.78041
1 2.69576 8.80601 10.851
1 2.60737 8.83386 14.9391
1 2.67367 12.89 2.65884
1 2.70231 12.8577 6.77405
1 2.66892 12.876 10.8351
1 2.64716 12.8561 14.8589
1 6.82109 0.674351 2.71417
1 6.84011 0.700667 6.79245
1 6.79429 0.66416 10.8555
1 6.7985 0.604154 14.9193
1 6.8 4.73173 2.75349
1 6.81661 4.7273 6.80276
1 6.80446 4.72509 10.8817
1 6.79569 4.69343 14.9405
1 6.84675 8.83532 2.68003
1 6.81755 8.83396 6.76151
1 6.77293 8.80409 10.8249
1 6.8032 8.79607 14.9134
1 6.81301 12.8415 2.67666
1 6.83765 12.8997 6.72845
1 6.80979 12.8307 10.7631
1 6.81943 12.8519 14.8854
1 10.8275 0.668512 2.6849
1 10.845 0.699014 6.78075
1 10.7948 0.691775 10.8126
1 10.8662 16.8944 14.9236
1 10.8554 4.76603 2.70593
1 10.8776 4.76761 6.77718
1 10.8506 4.76183 10.8641
1 10.8265 4.67432 14.9534
1 10.8873 8.84459 2.69893
1 10.8757 8.81508 6.80267
1 10.861 8.80986 10.82
1 10.8402 8.81469 14.8903
1 10.8635 12.8655 2.67757
1 10.8628 12.8254 6.73616
1 10.8034 12.8547 10.7708
1 10.8348 12.8732 14.8781
1 14.8721 16.9329 2.65666
1 14.8765 16.95 6.76037
1 14.8809 0.632742 10.8208
1 14.9294 16.9344 14.8826
1 14.8623 4.72134 2.74594
1 14.9071 4.68483 6.7822
1 14.9082 4.69072 10.8176
1 14.8941 4.69311 14.9144
1 14.8706 8.82609 2.68114
1 14.9454 8.82012 6.76453
1 14.8659 8.77236 10.8047
1 14.8691 8.77874 14.8951
1 14.9147 12.8764 2.67581
1 14.9288 12.872 6.76646
1 14.8975 12.8326 10.7894
1 14.8634 12.8739 14.878
1 2.68682 2.71886 0.699983